s 1.000000000 _6_ AGT  --- 0 tcp 40 [0 0 0 0] ------- [6:0 2:0 32 0] [0 0] 0 0
r 1.000000000 _6_ RTR  --- 0 tcp 40 [0 0 0 0] ------- [6:0 2:0 32 0] [0 0] 0 0
s 1.000000000 _6_ RTR  --- 0 AODV 48 [0 0 0 0] ------- [6:255 -1:255 30 0] [0x2 1 1 [2 0] [6 4]] (REQUEST)
s 1.000115000 _6_ MAC  --- 0 AODV 106 [0 ffffffff 6 800] ------- [6:255 -1:255 30 0] [0x2 1 1 [2 0] [6 4]] (REQUEST)
r 1.000963592 _10_ MAC  --- 0 AODV 48 [0 ffffffff 6 800] ------- [6:255 -1:255 30 0] [0x2 1 1 [2 0] [6 4]] (REQUEST)
r 1.000963617 _17_ MAC  --- 0 AODV 48 [0 ffffffff 6 800] ------- [6:255 -1:255 30 0] [0x2 1 1 [2 0] [6 4]] (REQUEST)
r 1.000963724 _9_ MAC  --- 0 AODV 48 [0 ffffffff 6 800] ------- [6:255 -1:255 30 0] [0x2 1 1 [2 0] [6 4]] (REQUEST)
r 1.000988592 _10_ RTR  --- 0 AODV 48 [0 ffffffff 6 800] ------- [6:255 -1:255 30 0] [0x2 1 1 [2 0] [6 4]] (REQUEST)
r 1.000988617 _17_ RTR  --- 0 AODV 48 [0 ffffffff 6 800] ------- [6:255 -1:255 30 0] [0x2 1 1 [2 0] [6 4]] (REQUEST)
r 1.000988724 _9_ RTR  --- 0 AODV 48 [0 ffffffff 6 800] ------- [6:255 -1:255 30 0] [0x2 1 1 [2 0] [6 4]] (REQUEST)
s 1.001869819 _10_ RTR  --- 0 AODV 48 [0 ffffffff 6 800] ------- [10:255 -1:255 29 0] [0x2 2 1 [2 0] [6 4]] (REQUEST)
s 1.002104819 _10_ MAC  --- 0 AODV 106 [0 ffffffff a 800] ------- [10:255 -1:255 29 0] [0x2 2 1 [2 0] [6 4]] (REQUEST)
r 1.002953411 _6_ MAC  --- 0 AODV 48 [0 ffffffff a 800] ------- [10:255 -1:255 29 0] [0x2 2 1 [2 0] [6 4]] (REQUEST)
r 1.002953428 _9_ MAC  --- 0 AODV 48 [0 ffffffff a 800] ------- [10:255 -1:255 29 0] [0x2 2 1 [2 0] [6 4]] (REQUEST)
r 1.002953494 _5_ MAC  --- 0 AODV 48 [0 ffffffff a 800] ------- [10:255 -1:255 29 0] [0x2 2 1 [2 0] [6 4]] (REQUEST)
r 1.002978411 _6_ RTR  --- 0 AODV 48 [0 ffffffff a 800] ------- [10:255 -1:255 29 0] [0x2 2 1 [2 0] [6 4]] (REQUEST)
r 1.002978428 _9_ RTR  --- 0 AODV 48 [0 ffffffff a 800] ------- [10:255 -1:255 29 0] [0x2 2 1 [2 0] [6 4]] (REQUEST)
r 1.002978494 _5_ RTR  --- 0 AODV 48 [0 ffffffff a 800] ------- [10:255 -1:255 29 0] [0x2 2 1 [2 0] [6 4]] (REQUEST)
s 1.005324512 _5_ RTR  --- 0 AODV 48 [0 ffffffff a 800] ------- [5:255 -1:255 28 0] [0x2 3 1 [2 0] [6 4]] (REQUEST)
s 1.005400351 _17_ RTR  --- 0 AODV 48 [0 ffffffff 6 800] ------- [17:255 -1:255 29 0] [0x2 2 1 [2 0] [6 4]] (REQUEST)
s 1.005735351 _17_ MAC  --- 0 AODV 106 [0 ffffffff 11 800] ------- [17:255 -1:255 29 0] [0x2 2 1 [2 0] [6 4]] (REQUEST)
r 1.006583830 _9_ MAC  --- 0 AODV 48 [0 ffffffff 11 800] ------- [17:255 -1:255 29 0] [0x2 2 1 [2 0] [6 4]] (REQUEST)
r 1.006583898 _7_ MAC  --- 0 AODV 48 [0 ffffffff 11 800] ------- [17:255 -1:255 29 0] [0x2 2 1 [2 0] [6 4]] (REQUEST)
r 1.006583969 _6_ MAC  --- 0 AODV 48 [0 ffffffff 11 800] ------- [17:255 -1:255 29 0] [0x2 2 1 [2 0] [6 4]] (REQUEST)
r 1.006608830 _9_ RTR  --- 0 AODV 48 [0 ffffffff 11 800] ------- [17:255 -1:255 29 0] [0x2 2 1 [2 0] [6 4]] (REQUEST)
r 1.006608898 _7_ RTR  --- 0 AODV 48 [0 ffffffff 11 800] ------- [17:255 -1:255 29 0] [0x2 2 1 [2 0] [6 4]] (REQUEST)
r 1.006608969 _6_ RTR  --- 0 AODV 48 [0 ffffffff 11 800] ------- [17:255 -1:255 29 0] [0x2 2 1 [2 0] [6 4]] (REQUEST)
s 1.007038771 _5_ MAC  --- 0 AODV 106 [0 ffffffff 5 800] ------- [5:255 -1:255 28 0] [0x2 3 1 [2 0] [6 4]] (REQUEST)
r 1.007887310 _8_ MAC  --- 0 AODV 48 [0 ffffffff 5 800] ------- [5:255 -1:255 28 0] [0x2 3 1 [2 0] [6 4]] (REQUEST)
r 1.007887389 _15_ MAC  --- 0 AODV 48 [0 ffffffff 5 800] ------- [5:255 -1:255 28 0] [0x2 3 1 [2 0] [6 4]] (REQUEST)
r 1.007887446 _10_ MAC  --- 0 AODV 48 [0 ffffffff 5 800] ------- [5:255 -1:255 28 0] [0x2 3 1 [2 0] [6 4]] (REQUEST)
r 1.007912310 _8_ RTR  --- 0 AODV 48 [0 ffffffff 5 800] ------- [5:255 -1:255 28 0] [0x2 3 1 [2 0] [6 4]] (REQUEST)
r 1.007912389 _15_ RTR  --- 0 AODV 48 [0 ffffffff 5 800] ------- [5:255 -1:255 28 0] [0x2 3 1 [2 0] [6 4]] (REQUEST)
r 1.007912446 _10_ RTR  --- 0 AODV 48 [0 ffffffff 5 800] ------- [5:255 -1:255 28 0] [0x2 3 1 [2 0] [6 4]] (REQUEST)
s 1.008250352 _7_ RTR  --- 0 AODV 48 [0 ffffffff 11 800] ------- [7:255 -1:255 28 0] [0x2 3 1 [2 0] [6 4]] (REQUEST)
s 1.008565352 _7_ MAC  --- 0 AODV 106 [0 ffffffff 7 800] ------- [7:255 -1:255 28 0] [0x2 3 1 [2 0] [6 4]] (REQUEST)
s 1.008980278 _9_ RTR  --- 0 AODV 48 [0 ffffffff 6 800] ------- [9:255 -1:255 29 0] [0x2 2 1 [2 0] [6 4]] (REQUEST)
s 1.009050472 _15_ RTR  --- 0 AODV 48 [0 ffffffff 5 800] ------- [15:255 -1:255 27 0] [0x2 4 1 [2 0] [6 4]] (REQUEST)
r 1.009413772 _9_ MAC  --- 0 AODV 48 [0 ffffffff 7 800] ------- [7:255 -1:255 28 0] [0x2 3 1 [2 0] [6 4]] (REQUEST)
r 1.009413793 _0_ MAC  --- 0 AODV 48 [0 ffffffff 7 800] ------- [7:255 -1:255 28 0] [0x2 3 1 [2 0] [6 4]] (REQUEST)
r 1.009413899 _17_ MAC  --- 0 AODV 48 [0 ffffffff 7 800] ------- [7:255 -1:255 28 0] [0x2 3 1 [2 0] [6 4]] (REQUEST)
r 1.009413956 _12_ MAC  --- 0 AODV 48 [0 ffffffff 7 800] ------- [7:255 -1:255 28 0] [0x2 3 1 [2 0] [6 4]] (REQUEST)
r 1.009438772 _9_ RTR  --- 0 AODV 48 [0 ffffffff 7 800] ------- [7:255 -1:255 28 0] [0x2 3 1 [2 0] [6 4]] (REQUEST)
r 1.009438793 _0_ RTR  --- 0 AODV 48 [0 ffffffff 7 800] ------- [7:255 -1:255 28 0] [0x2 3 1 [2 0] [6 4]] (REQUEST)
r 1.009438899 _17_ RTR  --- 0 AODV 48 [0 ffffffff 7 800] ------- [7:255 -1:255 28 0] [0x2 3 1 [2 0] [6 4]] (REQUEST)
r 1.009438956 _12_ RTR  --- 0 AODV 48 [0 ffffffff 7 800] ------- [7:255 -1:255 28 0] [0x2 3 1 [2 0] [6 4]] (REQUEST)
s 1.009623772 _9_ MAC  --- 0 AODV 106 [0 ffffffff 9 800] ------- [9:255 -1:255 29 0] [0x2 2 1 [2 0] [6 4]] (REQUEST)
r 1.010472193 _7_ MAC  --- 0 AODV 48 [0 ffffffff 9 800] ------- [9:255 -1:255 29 0] [0x2 2 1 [2 0] [6 4]] (REQUEST)
r 1.010472251 _17_ MAC  --- 0 AODV 48 [0 ffffffff 9 800] ------- [9:255 -1:255 29 0] [0x2 2 1 [2 0] [6 4]] (REQUEST)
r 1.010472287 _0_ MAC  --- 0 AODV 48 [0 ffffffff 9 800] ------- [9:255 -1:255 29 0] [0x2 2 1 [2 0] [6 4]] (REQUEST)
r 1.010472382 _10_ MAC  --- 0 AODV 48 [0 ffffffff 9 800] ------- [9:255 -1:255 29 0] [0x2 2 1 [2 0] [6 4]] (REQUEST)
r 1.010472496 _6_ MAC  --- 0 AODV 48 [0 ffffffff 9 800] ------- [9:255 -1:255 29 0] [0x2 2 1 [2 0] [6 4]] (REQUEST)
r 1.010472583 _8_ MAC  --- 0 AODV 48 [0 ffffffff 9 800] ------- [9:255 -1:255 29 0] [0x2 2 1 [2 0] [6 4]] (REQUEST)
r 1.010497193 _7_ RTR  --- 0 AODV 48 [0 ffffffff 9 800] ------- [9:255 -1:255 29 0] [0x2 2 1 [2 0] [6 4]] (REQUEST)
r 1.010497251 _17_ RTR  --- 0 AODV 48 [0 ffffffff 9 800] ------- [9:255 -1:255 29 0] [0x2 2 1 [2 0] [6 4]] (REQUEST)
r 1.010497287 _0_ RTR  --- 0 AODV 48 [0 ffffffff 9 800] ------- [9:255 -1:255 29 0] [0x2 2 1 [2 0] [6 4]] (REQUEST)
r 1.010497382 _10_ RTR  --- 0 AODV 48 [0 ffffffff 9 800] ------- [9:255 -1:255 29 0] [0x2 2 1 [2 0] [6 4]] (REQUEST)
r 1.010497496 _6_ RTR  --- 0 AODV 48 [0 ffffffff 9 800] ------- [9:255 -1:255 29 0] [0x2 2 1 [2 0] [6 4]] (REQUEST)
r 1.010497583 _8_ RTR  --- 0 AODV 48 [0 ffffffff 9 800] ------- [9:255 -1:255 29 0] [0x2 2 1 [2 0] [6 4]] (REQUEST)
s 1.011366973 _15_ MAC  --- 0 AODV 106 [0 ffffffff f 800] ------- [15:255 -1:255 27 0] [0x2 4 1 [2 0] [6 4]] (REQUEST)
r 1.012215365 _8_ MAC  --- 0 AODV 48 [0 ffffffff f 800] ------- [15:255 -1:255 27 0] [0x2 4 1 [2 0] [6 4]] (REQUEST)
r 1.012215494 _1_ MAC  --- 0 AODV 48 [0 ffffffff f 800] ------- [15:255 -1:255 27 0] [0x2 4 1 [2 0] [6 4]] (REQUEST)
r 1.012215591 _5_ MAC  --- 0 AODV 48 [0 ffffffff f 800] ------- [15:255 -1:255 27 0] [0x2 4 1 [2 0] [6 4]] (REQUEST)
r 1.012215645 _4_ MAC  --- 0 AODV 48 [0 ffffffff f 800] ------- [15:255 -1:255 27 0] [0x2 4 1 [2 0] [6 4]] (REQUEST)
r 1.012215761 _11_ MAC  --- 0 AODV 48 [0 ffffffff f 800] ------- [15:255 -1:255 27 0] [0x2 4 1 [2 0] [6 4]] (REQUEST)
r 1.012240365 _8_ RTR  --- 0 AODV 48 [0 ffffffff f 800] ------- [15:255 -1:255 27 0] [0x2 4 1 [2 0] [6 4]] (REQUEST)
r 1.012240494 _1_ RTR  --- 0 AODV 48 [0 ffffffff f 800] ------- [15:255 -1:255 27 0] [0x2 4 1 [2 0] [6 4]] (REQUEST)
r 1.012240591 _5_ RTR  --- 0 AODV 48 [0 ffffffff f 800] ------- [15:255 -1:255 27 0] [0x2 4 1 [2 0] [6 4]] (REQUEST)
r 1.012240645 _4_ RTR  --- 0 AODV 48 [0 ffffffff f 800] ------- [15:255 -1:255 27 0] [0x2 4 1 [2 0] [6 4]] (REQUEST)
r 1.012240761 _11_ RTR  --- 0 AODV 48 [0 ffffffff f 800] ------- [15:255 -1:255 27 0] [0x2 4 1 [2 0] [6 4]] (REQUEST)
s 1.012926366 _12_ RTR  --- 0 AODV 48 [0 ffffffff 7 800] ------- [12:255 -1:255 27 0] [0x2 4 1 [2 0] [6 4]] (REQUEST)
s 1.013581366 _12_ MAC  --- 0 AODV 106 [0 ffffffff c 800] ------- [12:255 -1:255 27 0] [0x2 4 1 [2 0] [6 4]] (REQUEST)
s 1.014312987 _8_ RTR  --- 0 AODV 48 [0 ffffffff 5 800] ------- [8:255 -1:255 27 0] [0x2 4 1 [2 0] [6 4]] (REQUEST)
r 1.014429902 _14_ MAC  --- 0 AODV 48 [0 ffffffff c 800] ------- [12:255 -1:255 27 0] [0x2 4 1 [2 0] [6 4]] (REQUEST)
r 1.014429928 _0_ MAC  --- 0 AODV 48 [0 ffffffff c 800] ------- [12:255 -1:255 27 0] [0x2 4 1 [2 0] [6 4]] (REQUEST)
r 1.014429970 _7_ MAC  --- 0 AODV 48 [0 ffffffff c 800] ------- [12:255 -1:255 27 0] [0x2 4 1 [2 0] [6 4]] (REQUEST)
r 1.014430140 _11_ MAC  --- 0 AODV 48 [0 ffffffff c 800] ------- [12:255 -1:255 27 0] [0x2 4 1 [2 0] [6 4]] (REQUEST)
r 1.014454902 _14_ RTR  --- 0 AODV 48 [0 ffffffff c 800] ------- [12:255 -1:255 27 0] [0x2 4 1 [2 0] [6 4]] (REQUEST)
r 1.014454928 _0_ RTR  --- 0 AODV 48 [0 ffffffff c 800] ------- [12:255 -1:255 27 0] [0x2 4 1 [2 0] [6 4]] (REQUEST)
r 1.014454970 _7_ RTR  --- 0 AODV 48 [0 ffffffff c 800] ------- [12:255 -1:255 27 0] [0x2 4 1 [2 0] [6 4]] (REQUEST)
r 1.014455140 _11_ RTR  --- 0 AODV 48 [0 ffffffff c 800] ------- [12:255 -1:255 27 0] [0x2 4 1 [2 0] [6 4]] (REQUEST)
s 1.015244426 _8_ MAC  --- 0 AODV 106 [0 ffffffff 8 800] ------- [8:255 -1:255 27 0] [0x2 4 1 [2 0] [6 4]] (REQUEST)
r 1.016092818 _15_ MAC  --- 0 AODV 48 [0 ffffffff 8 800] ------- [8:255 -1:255 27 0] [0x2 4 1 [2 0] [6 4]] (REQUEST)
r 1.016092965 _5_ MAC  --- 0 AODV 48 [0 ffffffff 8 800] ------- [8:255 -1:255 27 0] [0x2 4 1 [2 0] [6 4]] (REQUEST)
r 1.016092980 _1_ MAC  --- 0 AODV 48 [0 ffffffff 8 800] ------- [8:255 -1:255 27 0] [0x2 4 1 [2 0] [6 4]] (REQUEST)
r 1.016092995 _0_ MAC  --- 0 AODV 48 [0 ffffffff 8 800] ------- [8:255 -1:255 27 0] [0x2 4 1 [2 0] [6 4]] (REQUEST)
r 1.016093170 _11_ MAC  --- 0 AODV 48 [0 ffffffff 8 800] ------- [8:255 -1:255 27 0] [0x2 4 1 [2 0] [6 4]] (REQUEST)
r 1.016093237 _9_ MAC  --- 0 AODV 48 [0 ffffffff 8 800] ------- [8:255 -1:255 27 0] [0x2 4 1 [2 0] [6 4]] (REQUEST)
r 1.016117818 _15_ RTR  --- 0 AODV 48 [0 ffffffff 8 800] ------- [8:255 -1:255 27 0] [0x2 4 1 [2 0] [6 4]] (REQUEST)
r 1.016117965 _5_ RTR  --- 0 AODV 48 [0 ffffffff 8 800] ------- [8:255 -1:255 27 0] [0x2 4 1 [2 0] [6 4]] (REQUEST)
r 1.016117980 _1_ RTR  --- 0 AODV 48 [0 ffffffff 8 800] ------- [8:255 -1:255 27 0] [0x2 4 1 [2 0] [6 4]] (REQUEST)
r 1.016117995 _0_ RTR  --- 0 AODV 48 [0 ffffffff 8 800] ------- [8:255 -1:255 27 0] [0x2 4 1 [2 0] [6 4]] (REQUEST)
r 1.016118170 _11_ RTR  --- 0 AODV 48 [0 ffffffff 8 800] ------- [8:255 -1:255 27 0] [0x2 4 1 [2 0] [6 4]] (REQUEST)
r 1.016118237 _9_ RTR  --- 0 AODV 48 [0 ffffffff 8 800] ------- [8:255 -1:255 27 0] [0x2 4 1 [2 0] [6 4]] (REQUEST)
s 1.016867158 _14_ RTR  --- 0 AODV 48 [0 ffffffff c 800] ------- [14:255 -1:255 26 0] [0x2 5 1 [2 0] [6 4]] (REQUEST)
s 1.016901804 _4_ RTR  --- 0 AODV 48 [0 ffffffff f 800] ------- [4:255 -1:255 26 0] [0x2 5 1 [2 0] [6 4]] (REQUEST)
s 1.017242158 _14_ MAC  --- 0 AODV 106 [0 ffffffff e 800] ------- [14:255 -1:255 26 0] [0x2 5 1 [2 0] [6 4]] (REQUEST)
s 1.017426982 _1_ RTR  --- 0 AODV 48 [0 ffffffff f 800] ------- [1:255 -1:255 26 0] [0x2 5 1 [2 0] [6 4]] (REQUEST)
s 1.017509079 _0_ RTR  --- 0 AODV 48 [0 ffffffff 7 800] ------- [0:255 -1:255 27 0] [0x2 4 1 [2 0] [6 4]] (REQUEST)
r 1.018090636 _13_ MAC  --- 0 AODV 48 [0 ffffffff e 800] ------- [14:255 -1:255 26 0] [0x2 5 1 [2 0] [6 4]] (REQUEST)
r 1.018090694 _12_ MAC  --- 0 AODV 48 [0 ffffffff e 800] ------- [14:255 -1:255 26 0] [0x2 5 1 [2 0] [6 4]] (REQUEST)
r 1.018090705 _11_ MAC  --- 0 AODV 48 [0 ffffffff e 800] ------- [14:255 -1:255 26 0] [0x2 5 1 [2 0] [6 4]] (REQUEST)
r 1.018090775 _3_ MAC  --- 0 AODV 48 [0 ffffffff e 800] ------- [14:255 -1:255 26 0] [0x2 5 1 [2 0] [6 4]] (REQUEST)
r 1.018090974 _1_ MAC  --- 0 AODV 48 [0 ffffffff e 800] ------- [14:255 -1:255 26 0] [0x2 5 1 [2 0] [6 4]] (REQUEST)
r 1.018115636 _13_ RTR  --- 0 AODV 48 [0 ffffffff e 800] ------- [14:255 -1:255 26 0] [0x2 5 1 [2 0] [6 4]] (REQUEST)
r 1.018115694 _12_ RTR  --- 0 AODV 48 [0 ffffffff e 800] ------- [14:255 -1:255 26 0] [0x2 5 1 [2 0] [6 4]] (REQUEST)
r 1.018115705 _11_ RTR  --- 0 AODV 48 [0 ffffffff e 800] ------- [14:255 -1:255 26 0] [0x2 5 1 [2 0] [6 4]] (REQUEST)
r 1.018115775 _3_ RTR  --- 0 AODV 48 [0 ffffffff e 800] ------- [14:255 -1:255 26 0] [0x2 5 1 [2 0] [6 4]] (REQUEST)
r 1.018115974 _1_ RTR  --- 0 AODV 48 [0 ffffffff e 800] ------- [14:255 -1:255 26 0] [0x2 5 1 [2 0] [6 4]] (REQUEST)
s 1.018280974 _1_ MAC  --- 0 AODV 106 [0 ffffffff 1 800] ------- [1:255 -1:255 26 0] [0x2 5 1 [2 0] [6 4]] (REQUEST)
r 1.019129246 _11_ MAC  --- 0 AODV 48 [0 ffffffff 1 800] ------- [1:255 -1:255 26 0] [0x2 5 1 [2 0] [6 4]] (REQUEST)
r 1.019129366 _4_ MAC  --- 0 AODV 48 [0 ffffffff 1 800] ------- [1:255 -1:255 26 0] [0x2 5 1 [2 0] [6 4]] (REQUEST)
r 1.019129495 _15_ MAC  --- 0 AODV 48 [0 ffffffff 1 800] ------- [1:255 -1:255 26 0] [0x2 5 1 [2 0] [6 4]] (REQUEST)
r 1.019129528 _8_ MAC  --- 0 AODV 48 [0 ffffffff 1 800] ------- [1:255 -1:255 26 0] [0x2 5 1 [2 0] [6 4]] (REQUEST)
r 1.019129731 _0_ MAC  --- 0 AODV 48 [0 ffffffff 1 800] ------- [1:255 -1:255 26 0] [0x2 5 1 [2 0] [6 4]] (REQUEST)
r 1.019129767 _13_ MAC  --- 0 AODV 48 [0 ffffffff 1 800] ------- [1:255 -1:255 26 0] [0x2 5 1 [2 0] [6 4]] (REQUEST)
r 1.019129790 _14_ MAC  --- 0 AODV 48 [0 ffffffff 1 800] ------- [1:255 -1:255 26 0] [0x2 5 1 [2 0] [6 4]] (REQUEST)
r 1.019154246 _11_ RTR  --- 0 AODV 48 [0 ffffffff 1 800] ------- [1:255 -1:255 26 0] [0x2 5 1 [2 0] [6 4]] (REQUEST)
r 1.019154366 _4_ RTR  --- 0 AODV 48 [0 ffffffff 1 800] ------- [1:255 -1:255 26 0] [0x2 5 1 [2 0] [6 4]] (REQUEST)
r 1.019154495 _15_ RTR  --- 0 AODV 48 [0 ffffffff 1 800] ------- [1:255 -1:255 26 0] [0x2 5 1 [2 0] [6 4]] (REQUEST)
r 1.019154528 _8_ RTR  --- 0 AODV 48 [0 ffffffff 1 800] ------- [1:255 -1:255 26 0] [0x2 5 1 [2 0] [6 4]] (REQUEST)
r 1.019154731 _0_ RTR  --- 0 AODV 48 [0 ffffffff 1 800] ------- [1:255 -1:255 26 0] [0x2 5 1 [2 0] [6 4]] (REQUEST)
r 1.019154767 _13_ RTR  --- 0 AODV 48 [0 ffffffff 1 800] ------- [1:255 -1:255 26 0] [0x2 5 1 [2 0] [6 4]] (REQUEST)
r 1.019154790 _14_ RTR  --- 0 AODV 48 [0 ffffffff 1 800] ------- [1:255 -1:255 26 0] [0x2 5 1 [2 0] [6 4]] (REQUEST)
s 1.019163830 _11_ RTR  --- 0 AODV 48 [0 ffffffff f 800] ------- [11:255 -1:255 26 0] [0x2 5 1 [2 0] [6 4]] (REQUEST)
s 1.019259731 _0_ MAC  --- 0 AODV 106 [0 ffffffff 0 800] ------- [0:255 -1:255 27 0] [0x2 4 1 [2 0] [6 4]] (REQUEST)
s 1.019989428 _3_ RTR  --- 0 AODV 48 [0 ffffffff e 800] ------- [3:255 -1:255 25 0] [0x2 6 1 [2 0] [6 4]] (REQUEST)
r 1.020108173 _7_ MAC  --- 0 AODV 48 [0 ffffffff 0 800] ------- [0:255 -1:255 27 0] [0x2 4 1 [2 0] [6 4]] (REQUEST)
r 1.020108246 _9_ MAC  --- 0 AODV 48 [0 ffffffff 0 800] ------- [0:255 -1:255 27 0] [0x2 4 1 [2 0] [6 4]] (REQUEST)
r 1.020108293 _12_ MAC  --- 0 AODV 48 [0 ffffffff 0 800] ------- [0:255 -1:255 27 0] [0x2 4 1 [2 0] [6 4]] (REQUEST)
r 1.020108301 _8_ MAC  --- 0 AODV 48 [0 ffffffff 0 800] ------- [0:255 -1:255 27 0] [0x2 4 1 [2 0] [6 4]] (REQUEST)
r 1.020108474 _11_ MAC  --- 0 AODV 48 [0 ffffffff 0 800] ------- [0:255 -1:255 27 0] [0x2 4 1 [2 0] [6 4]] (REQUEST)
r 1.020108489 _1_ MAC  --- 0 AODV 48 [0 ffffffff 0 800] ------- [0:255 -1:255 27 0] [0x2 4 1 [2 0] [6 4]] (REQUEST)
r 1.020133173 _7_ RTR  --- 0 AODV 48 [0 ffffffff 0 800] ------- [0:255 -1:255 27 0] [0x2 4 1 [2 0] [6 4]] (REQUEST)
r 1.020133246 _9_ RTR  --- 0 AODV 48 [0 ffffffff 0 800] ------- [0:255 -1:255 27 0] [0x2 4 1 [2 0] [6 4]] (REQUEST)
r 1.020133293 _12_ RTR  --- 0 AODV 48 [0 ffffffff 0 800] ------- [0:255 -1:255 27 0] [0x2 4 1 [2 0] [6 4]] (REQUEST)
r 1.020133301 _8_ RTR  --- 0 AODV 48 [0 ffffffff 0 800] ------- [0:255 -1:255 27 0] [0x2 4 1 [2 0] [6 4]] (REQUEST)
r 1.020133474 _11_ RTR  --- 0 AODV 48 [0 ffffffff 0 800] ------- [0:255 -1:255 27 0] [0x2 4 1 [2 0] [6 4]] (REQUEST)
r 1.020133489 _1_ RTR  --- 0 AODV 48 [0 ffffffff 0 800] ------- [0:255 -1:255 27 0] [0x2 4 1 [2 0] [6 4]] (REQUEST)
s 1.020358474 _11_ MAC  --- 0 AODV 106 [0 ffffffff b 800] ------- [11:255 -1:255 26 0] [0x2 5 1 [2 0] [6 4]] (REQUEST)
r 1.021206746 _1_ MAC  --- 0 AODV 48 [0 ffffffff b 800] ------- [11:255 -1:255 26 0] [0x2 5 1 [2 0] [6 4]] (REQUEST)
r 1.021206984 _4_ MAC  --- 0 AODV 48 [0 ffffffff b 800] ------- [11:255 -1:255 26 0] [0x2 5 1 [2 0] [6 4]] (REQUEST)
r 1.021207021 _14_ MAC  --- 0 AODV 48 [0 ffffffff b 800] ------- [11:255 -1:255 26 0] [0x2 5 1 [2 0] [6 4]] (REQUEST)
r 1.021207040 _13_ MAC  --- 0 AODV 48 [0 ffffffff b 800] ------- [11:255 -1:255 26 0] [0x2 5 1 [2 0] [6 4]] (REQUEST)
r 1.021207217 _0_ MAC  --- 0 AODV 48 [0 ffffffff b 800] ------- [11:255 -1:255 26 0] [0x2 5 1 [2 0] [6 4]] (REQUEST)
r 1.021207218 _8_ MAC  --- 0 AODV 48 [0 ffffffff b 800] ------- [11:255 -1:255 26 0] [0x2 5 1 [2 0] [6 4]] (REQUEST)
r 1.021207248 _12_ MAC  --- 0 AODV 48 [0 ffffffff b 800] ------- [11:255 -1:255 26 0] [0x2 5 1 [2 0] [6 4]] (REQUEST)
r 1.021207263 _15_ MAC  --- 0 AODV 48 [0 ffffffff b 800] ------- [11:255 -1:255 26 0] [0x2 5 1 [2 0] [6 4]] (REQUEST)
r 1.021231746 _1_ RTR  --- 0 AODV 48 [0 ffffffff b 800] ------- [11:255 -1:255 26 0] [0x2 5 1 [2 0] [6 4]] (REQUEST)
r 1.021231984 _4_ RTR  --- 0 AODV 48 [0 ffffffff b 800] ------- [11:255 -1:255 26 0] [0x2 5 1 [2 0] [6 4]] (REQUEST)
r 1.021232021 _14_ RTR  --- 0 AODV 48 [0 ffffffff b 800] ------- [11:255 -1:255 26 0] [0x2 5 1 [2 0] [6 4]] (REQUEST)
r 1.021232040 _13_ RTR  --- 0 AODV 48 [0 ffffffff b 800] ------- [11:255 -1:255 26 0] [0x2 5 1 [2 0] [6 4]] (REQUEST)
r 1.021232217 _0_ RTR  --- 0 AODV 48 [0 ffffffff b 800] ------- [11:255 -1:255 26 0] [0x2 5 1 [2 0] [6 4]] (REQUEST)
r 1.021232218 _8_ RTR  --- 0 AODV 48 [0 ffffffff b 800] ------- [11:255 -1:255 26 0] [0x2 5 1 [2 0] [6 4]] (REQUEST)
r 1.021232248 _12_ RTR  --- 0 AODV 48 [0 ffffffff b 800] ------- [11:255 -1:255 26 0] [0x2 5 1 [2 0] [6 4]] (REQUEST)
r 1.021232263 _15_ RTR  --- 0 AODV 48 [0 ffffffff b 800] ------- [11:255 -1:255 26 0] [0x2 5 1 [2 0] [6 4]] (REQUEST)
s 1.021276984 _4_ MAC  --- 0 AODV 106 [0 ffffffff 4 800] ------- [4:255 -1:255 26 0] [0x2 5 1 [2 0] [6 4]] (REQUEST)
r 1.022125376 _1_ MAC  --- 0 AODV 48 [0 ffffffff 4 800] ------- [4:255 -1:255 26 0] [0x2 5 1 [2 0] [6 4]] (REQUEST)
r 1.022125493 _11_ MAC  --- 0 AODV 48 [0 ffffffff 4 800] ------- [4:255 -1:255 26 0] [0x2 5 1 [2 0] [6 4]] (REQUEST)
r 1.022125656 _15_ MAC  --- 0 AODV 48 [0 ffffffff 4 800] ------- [4:255 -1:255 26 0] [0x2 5 1 [2 0] [6 4]] (REQUEST)
r 1.022125661 _16_ MAC  --- 0 AODV 48 [0 ffffffff 4 800] ------- [4:255 -1:255 26 0] [0x2 5 1 [2 0] [6 4]] (REQUEST)
r 1.022125744 _13_ MAC  --- 0 AODV 48 [0 ffffffff 4 800] ------- [4:255 -1:255 26 0] [0x2 5 1 [2 0] [6 4]] (REQUEST)
r 1.022150376 _1_ RTR  --- 0 AODV 48 [0 ffffffff 4 800] ------- [4:255 -1:255 26 0] [0x2 5 1 [2 0] [6 4]] (REQUEST)
r 1.022150493 _11_ RTR  --- 0 AODV 48 [0 ffffffff 4 800] ------- [4:255 -1:255 26 0] [0x2 5 1 [2 0] [6 4]] (REQUEST)
r 1.022150656 _15_ RTR  --- 0 AODV 48 [0 ffffffff 4 800] ------- [4:255 -1:255 26 0] [0x2 5 1 [2 0] [6 4]] (REQUEST)
r 1.022150661 _16_ RTR  --- 0 AODV 48 [0 ffffffff 4 800] ------- [4:255 -1:255 26 0] [0x2 5 1 [2 0] [6 4]] (REQUEST)
r 1.022150744 _13_ RTR  --- 0 AODV 48 [0 ffffffff 4 800] ------- [4:255 -1:255 26 0] [0x2 5 1 [2 0] [6 4]] (REQUEST)
s 1.022157712 _13_ RTR  --- 0 AODV 48 [0 ffffffff e 800] ------- [13:255 -1:255 25 0] [0x2 6 1 [2 0] [6 4]] (REQUEST)
s 1.022732712 _13_ MAC  --- 0 AODV 106 [0 ffffffff d 800] ------- [13:255 -1:255 25 0] [0x2 6 1 [2 0] [6 4]] (REQUEST)
r 1.023581097 _3_ MAC  --- 0 AODV 48 [0 ffffffff d 800] ------- [13:255 -1:255 25 0] [0x2 6 1 [2 0] [6 4]] (REQUEST)
r 1.023581190 _14_ MAC  --- 0 AODV 48 [0 ffffffff d 800] ------- [13:255 -1:255 25 0] [0x2 6 1 [2 0] [6 4]] (REQUEST)
r 1.023581278 _11_ MAC  --- 0 AODV 48 [0 ffffffff d 800] ------- [13:255 -1:255 25 0] [0x2 6 1 [2 0] [6 4]] (REQUEST)
r 1.023581390 _2_ MAC  --- 0 AODV 48 [0 ffffffff d 800] ------- [13:255 -1:255 25 0] [0x2 6 1 [2 0] [6 4]] (REQUEST)
r 1.023581472 _4_ MAC  --- 0 AODV 48 [0 ffffffff d 800] ------- [13:255 -1:255 25 0] [0x2 6 1 [2 0] [6 4]] (REQUEST)
r 1.023581504 _1_ MAC  --- 0 AODV 48 [0 ffffffff d 800] ------- [13:255 -1:255 25 0] [0x2 6 1 [2 0] [6 4]] (REQUEST)
r 1.023581526 _16_ MAC  --- 0 AODV 48 [0 ffffffff d 800] ------- [13:255 -1:255 25 0] [0x2 6 1 [2 0] [6 4]] (REQUEST)
r 1.023606097 _3_ RTR  --- 0 AODV 48 [0 ffffffff d 800] ------- [13:255 -1:255 25 0] [0x2 6 1 [2 0] [6 4]] (REQUEST)
r 1.023606190 _14_ RTR  --- 0 AODV 48 [0 ffffffff d 800] ------- [13:255 -1:255 25 0] [0x2 6 1 [2 0] [6 4]] (REQUEST)
r 1.023606278 _11_ RTR  --- 0 AODV 48 [0 ffffffff d 800] ------- [13:255 -1:255 25 0] [0x2 6 1 [2 0] [6 4]] (REQUEST)
r 1.023606390 _2_ RTR  --- 0 AODV 48 [0 ffffffff d 800] ------- [13:255 -1:255 25 0] [0x2 6 1 [2 0] [6 4]] (REQUEST)
s 1.023606390 _2_ RTR  --- 0 AODV 44 [0 0 0 0] ------- [2:255 6:255 30 13] [0x4 1 [2 4] 10.000000] (REPLY)
r 1.023606472 _4_ RTR  --- 0 AODV 48 [0 ffffffff d 800] ------- [13:255 -1:255 25 0] [0x2 6 1 [2 0] [6 4]] (REQUEST)
r 1.023606504 _1_ RTR  --- 0 AODV 48 [0 ffffffff d 800] ------- [13:255 -1:255 25 0] [0x2 6 1 [2 0] [6 4]] (REQUEST)
r 1.023606526 _16_ RTR  --- 0 AODV 48 [0 ffffffff d 800] ------- [13:255 -1:255 25 0] [0x2 6 1 [2 0] [6 4]] (REQUEST)
s 1.023651097 _3_ MAC  --- 0 AODV 106 [0 ffffffff 3 800] ------- [3:255 -1:255 25 0] [0x2 6 1 [2 0] [6 4]] (REQUEST)
r 1.024499483 _13_ MAC  --- 0 AODV 48 [0 ffffffff 3 800] ------- [3:255 -1:255 25 0] [0x2 6 1 [2 0] [6 4]] (REQUEST)
r 1.024499714 _14_ MAC  --- 0 AODV 48 [0 ffffffff 3 800] ------- [3:255 -1:255 25 0] [0x2 6 1 [2 0] [6 4]] (REQUEST)
r 1.024499748 _2_ MAC  --- 0 AODV 48 [0 ffffffff 3 800] ------- [3:255 -1:255 25 0] [0x2 6 1 [2 0] [6 4]] (REQUEST)
r 1.024524483 _13_ RTR  --- 0 AODV 48 [0 ffffffff 3 800] ------- [3:255 -1:255 25 0] [0x2 6 1 [2 0] [6 4]] (REQUEST)
r 1.024524714 _14_ RTR  --- 0 AODV 48 [0 ffffffff 3 800] ------- [3:255 -1:255 25 0] [0x2 6 1 [2 0] [6 4]] (REQUEST)
r 1.024524748 _2_ RTR  --- 0 AODV 48 [0 ffffffff 3 800] ------- [3:255 -1:255 25 0] [0x2 6 1 [2 0] [6 4]] (REQUEST)
s 1.024729748 _2_ MAC  --- 0 ARP 86 [0 ffffffff 2 806] ------- [REQUEST 2/2 0/13]
r 1.025418331 _16_ MAC  --- 0 ARP 28 [0 ffffffff 2 806] ------- [REQUEST 2/2 0/13]
r 1.025418398 _3_ MAC  --- 0 ARP 28 [0 ffffffff 2 806] ------- [REQUEST 2/2 0/13]
r 1.025418426 _13_ MAC  --- 0 ARP 28 [0 ffffffff 2 806] ------- [REQUEST 2/2 0/13]
s 1.025548426 _13_ MAC  --- 0 RTS 44 [52e 2 d 0] 
r 1.025901105 _2_ MAC  --- 0 RTS 44 [52e 2 d 0] 
s 1.025911105 _2_ MAC  --- 0 CTS 38 [3f4 d 0 0] 
r 1.026215784 _13_ MAC  --- 0 CTS 38 [3f4 d 0 0] 
s 1.026225784 _13_ MAC  --- 0 ARP 86 [13a 2 d 806] ------- [REPLY 13/13 2/2]
r 1.026914462 _2_ MAC  --- 0 ARP 28 [13a 2 d 806] ------- [REPLY 13/13 2/2]
s 1.026924462 _2_ MAC  --- 0 ACK 38 [0 d 0 0] 
r 1.027229141 _13_ MAC  --- 0 ACK 38 [0 d 0 0] 
s 1.027678462 _2_ MAC  --- 0 RTS 44 [5ae d 2 0] 
r 1.028031141 _13_ MAC  --- 0 RTS 44 [5ae d 2 0] 
s 1.028041141 _13_ MAC  --- 0 CTS 38 [474 2 0 0] 
s 1.028100935 _16_ RTR  --- 0 AODV 48 [0 ffffffff 4 800] ------- [16:255 -1:255 25 0] [0x2 6 1 [2 0] [6 4]] (REQUEST)
r 1.028345820 _2_ MAC  --- 0 CTS 38 [474 2 0 0] 
s 1.028355820 _2_ MAC  --- 0 AODV 102 [13a d 2 800] ------- [2:255 6:255 30 13] [0x4 1 [2 4] 10.000000] (REPLY)
r 1.029172498 _13_ MAC  --- 0 AODV 44 [13a d 2 800] ------- [2:255 6:255 30 13] [0x4 1 [2 4] 10.000000] (REPLY)
s 1.029182498 _13_ MAC  --- 0 ACK 38 [0 2 0 0] 
r 1.029197498 _13_ RTR  --- 0 AODV 44 [13a d 2 800] ------- [2:255 6:255 30 13] [0x4 1 [2 4] 10.000000] (REPLY)
f 1.029197498 _13_ RTR  --- 0 AODV 44 [13a d 2 800] ------- [2:255 6:255 29 14] [0x4 2 [2 4] 10.000000] (REPLY)
r 1.029487177 _2_ MAC  --- 0 ACK 38 [0 2 0 0] 
s 1.029757313 _16_ MAC  --- 0 AODV 106 [0 ffffffff 10 800] ------- [16:255 -1:255 25 0] [0x2 6 1 [2 0] [6 4]] (REQUEST)
r 1.030605896 _2_ MAC  --- 0 AODV 48 [0 ffffffff 10 800] ------- [16:255 -1:255 25 0] [0x2 6 1 [2 0] [6 4]] (REQUEST)
r 1.030605991 _4_ MAC  --- 0 AODV 48 [0 ffffffff 10 800] ------- [16:255 -1:255 25 0] [0x2 6 1 [2 0] [6 4]] (REQUEST)
r 1.030606127 _13_ MAC  --- 0 AODV 48 [0 ffffffff 10 800] ------- [16:255 -1:255 25 0] [0x2 6 1 [2 0] [6 4]] (REQUEST)
r 1.030630896 _2_ RTR  --- 0 AODV 48 [0 ffffffff 10 800] ------- [16:255 -1:255 25 0] [0x2 6 1 [2 0] [6 4]] (REQUEST)
r 1.030630991 _4_ RTR  --- 0 AODV 48 [0 ffffffff 10 800] ------- [16:255 -1:255 25 0] [0x2 6 1 [2 0] [6 4]] (REQUEST)
r 1.030631127 _13_ RTR  --- 0 AODV 48 [0 ffffffff 10 800] ------- [16:255 -1:255 25 0] [0x2 6 1 [2 0] [6 4]] (REQUEST)
s 1.030756127 _13_ MAC  --- 0 ARP 86 [0 ffffffff d 806] ------- [REQUEST 13/13 0/14]
r 1.031444513 _3_ MAC  --- 0 ARP 28 [0 ffffffff d 806] ------- [REQUEST 13/13 0/14]
r 1.031444605 _14_ MAC  --- 0 ARP 28 [0 ffffffff d 806] ------- [REQUEST 13/13 0/14]
r 1.031444693 _11_ MAC  --- 0 ARP 28 [0 ffffffff d 806] ------- [REQUEST 13/13 0/14]
r 1.031444806 _2_ MAC  --- 0 ARP 28 [0 ffffffff d 806] ------- [REQUEST 13/13 0/14]
r 1.031444887 _4_ MAC  --- 0 ARP 28 [0 ffffffff d 806] ------- [REQUEST 13/13 0/14]
r 1.031444920 _1_ MAC  --- 0 ARP 28 [0 ffffffff d 806] ------- [REQUEST 13/13 0/14]
r 1.031444942 _16_ MAC  --- 0 ARP 28 [0 ffffffff d 806] ------- [REQUEST 13/13 0/14]
s 1.031799605 _14_ MAC  --- 0 RTS 44 [52e d e 0] 
r 1.032152083 _13_ MAC  --- 0 RTS 44 [52e d e 0] 
s 1.032162083 _13_ MAC  --- 0 CTS 38 [3f4 e 0 0] 
r 1.032466561 _14_ MAC  --- 0 CTS 38 [3f4 e 0 0] 
s 1.032476561 _14_ MAC  --- 0 ARP 86 [13a d e 806] ------- [REPLY 14/14 13/13]
r 1.033165040 _13_ MAC  --- 0 ARP 28 [13a d e 806] ------- [REPLY 14/14 13/13]
s 1.033175040 _13_ MAC  --- 0 ACK 38 [0 e 0 0] 
r 1.033479518 _14_ MAC  --- 0 ACK 38 [0 e 0 0] 
s 1.033529040 _13_ MAC  --- 0 RTS 44 [5ae e d 0] 
r 1.033881518 _14_ MAC  --- 0 RTS 44 [5ae e d 0] 
s 1.033891518 _14_ MAC  --- 0 CTS 38 [474 d 0 0] 
r 1.034195996 _13_ MAC  --- 0 CTS 38 [474 d 0 0] 
s 1.034205996 _13_ MAC  --- 0 AODV 102 [13a e d 800] ------- [2:255 6:255 29 14] [0x4 2 [2 4] 10.000000] (REPLY)
r 1.035022474 _14_ MAC  --- 0 AODV 44 [13a e d 800] ------- [2:255 6:255 29 14] [0x4 2 [2 4] 10.000000] (REPLY)
s 1.035032474 _14_ MAC  --- 0 ACK 38 [0 d 0 0] 
r 1.035047474 _14_ RTR  --- 0 AODV 44 [13a e d 800] ------- [2:255 6:255 29 14] [0x4 2 [2 4] 10.000000] (REPLY)
f 1.035047474 _14_ RTR  --- 0 AODV 44 [13a e d 800] ------- [2:255 6:255 28 12] [0x4 3 [2 4] 10.000000] (REPLY)
r 1.035336952 _13_ MAC  --- 0 ACK 38 [0 d 0 0] 
s 1.035626474 _14_ MAC  --- 0 ARP 86 [0 ffffffff e 806] ------- [REQUEST 14/14 0/12]
r 1.036314952 _13_ MAC  --- 0 ARP 28 [0 ffffffff e 806] ------- [REQUEST 14/14 0/12]
r 1.036315009 _12_ MAC  --- 0 ARP 28 [0 ffffffff e 806] ------- [REQUEST 14/14 0/12]
r 1.036315021 _11_ MAC  --- 0 ARP 28 [0 ffffffff e 806] ------- [REQUEST 14/14 0/12]
r 1.036315091 _3_ MAC  --- 0 ARP 28 [0 ffffffff e 806] ------- [REQUEST 14/14 0/12]
r 1.036315290 _1_ MAC  --- 0 ARP 28 [0 ffffffff e 806] ------- [REQUEST 14/14 0/12]
s 1.036390009 _12_ MAC  --- 0 RTS 44 [52e e c 0] 
r 1.036742545 _14_ MAC  --- 0 RTS 44 [52e e c 0] 
s 1.036752545 _14_ MAC  --- 0 CTS 38 [3f4 c 0 0] 
r 1.037057080 _12_ MAC  --- 0 CTS 38 [3f4 c 0 0] 
s 1.037067080 _12_ MAC  --- 0 ARP 86 [13a e c 806] ------- [REPLY 12/12 14/14]
r 1.037755616 _14_ MAC  --- 0 ARP 28 [13a e c 806] ------- [REPLY 12/12 14/14]
s 1.037765616 _14_ MAC  --- 0 ACK 38 [0 c 0 0] 
r 1.038070151 _12_ MAC  --- 0 ACK 38 [0 c 0 0] 
s 1.038379616 _14_ MAC  --- 0 RTS 44 [5ae c e 0] 
r 1.038732151 _12_ MAC  --- 0 RTS 44 [5ae c e 0] 
s 1.038742151 _12_ MAC  --- 0 CTS 38 [474 e 0 0] 
r 1.039046687 _14_ MAC  --- 0 CTS 38 [474 e 0 0] 
s 1.039056687 _14_ MAC  --- 0 AODV 102 [13a c e 800] ------- [2:255 6:255 28 12] [0x4 3 [2 4] 10.000000] (REPLY)
r 1.039873222 _12_ MAC  --- 0 AODV 44 [13a c e 800] ------- [2:255 6:255 28 12] [0x4 3 [2 4] 10.000000] (REPLY)
s 1.039883222 _12_ MAC  --- 0 ACK 38 [0 e 0 0] 
r 1.039898222 _12_ RTR  --- 0 AODV 44 [13a c e 800] ------- [2:255 6:255 28 12] [0x4 3 [2 4] 10.000000] (REPLY)
f 1.039898222 _12_ RTR  --- 0 AODV 44 [13a c e 800] ------- [2:255 6:255 27 7] [0x4 4 [2 4] 10.000000] (REPLY)
r 1.040187758 _14_ MAC  --- 0 ACK 38 [0 e 0 0] 
s 1.040477222 _12_ MAC  --- 0 ARP 86 [0 ffffffff c 806] ------- [REQUEST 12/12 0/7]
r 1.041165758 _14_ MAC  --- 0 ARP 28 [0 ffffffff c 806] ------- [REQUEST 12/12 0/7]
r 1.041165784 _0_ MAC  --- 0 ARP 28 [0 ffffffff c 806] ------- [REQUEST 12/12 0/7]
r 1.041165826 _7_ MAC  --- 0 ARP 28 [0 ffffffff c 806] ------- [REQUEST 12/12 0/7]
r 1.041165996 _11_ MAC  --- 0 ARP 28 [0 ffffffff c 806] ------- [REQUEST 12/12 0/7]
s 1.041520826 _7_ MAC  --- 0 RTS 44 [52e c 7 0] 
r 1.041873430 _12_ MAC  --- 0 RTS 44 [52e c 7 0] 
s 1.041883430 _12_ MAC  --- 0 CTS 38 [3f4 7 0 0] 
r 1.042188034 _7_ MAC  --- 0 CTS 38 [3f4 7 0 0] 
s 1.042198034 _7_ MAC  --- 0 ARP 86 [13a c 7 806] ------- [REPLY 7/7 12/12]
r 1.042886638 _12_ MAC  --- 0 ARP 28 [13a c 7 806] ------- [REPLY 7/7 12/12]
s 1.042896638 _12_ MAC  --- 0 ACK 38 [0 7 0 0] 
r 1.043201242 _7_ MAC  --- 0 ACK 38 [0 7 0 0] 
s 1.043290638 _12_ MAC  --- 0 RTS 44 [5ae 7 c 0] 
r 1.043643242 _7_ MAC  --- 0 RTS 44 [5ae 7 c 0] 
s 1.043653242 _7_ MAC  --- 0 CTS 38 [474 c 0 0] 
r 1.043957846 _12_ MAC  --- 0 CTS 38 [474 c 0 0] 
s 1.043967846 _12_ MAC  --- 0 AODV 102 [13a 7 c 800] ------- [2:255 6:255 27 7] [0x4 4 [2 4] 10.000000] (REPLY)
r 1.044784450 _7_ MAC  --- 0 AODV 44 [13a 7 c 800] ------- [2:255 6:255 27 7] [0x4 4 [2 4] 10.000000] (REPLY)
s 1.044794450 _7_ MAC  --- 0 ACK 38 [0 c 0 0] 
r 1.044809450 _7_ RTR  --- 0 AODV 44 [13a 7 c 800] ------- [2:255 6:255 27 7] [0x4 4 [2 4] 10.000000] (REPLY)
f 1.044809450 _7_ RTR  --- 0 AODV 44 [13a 7 c 800] ------- [2:255 6:255 26 17] [0x4 5 [2 4] 10.000000] (REPLY)
r 1.045099054 _12_ MAC  --- 0 ACK 38 [0 c 0 0] 
s 1.045588450 _7_ MAC  --- 0 ARP 86 [0 ffffffff 7 806] ------- [REQUEST 7/7 0/17]